 Entering Gaussian System, Link 0=gdv
 Input=H2_0p55.gjf
 Output=H2_0p55.log
 Initial command:
 /home/software/gaussian/gdv/j19/gdv/l1.exe "/home/aodongliu/GauScr/Gau-347889.inp" -scrdir="/home/aodongliu/GauScr/"
 Entering Link 1 = /home/software/gaussian/gdv/j19/gdv/l1.exe PID=    347890.
  
 Copyright (c) 1988-2021, Gaussian, Inc.  All Rights Reserved.
  
 This is the private, development version of
 the Gaussian(R) DV system of programs. It is based on
 the Gaussian(R) 16 system (copyright 2016, Gaussian, Inc.),
 the Gaussian(R) 09 system (copyright 2009, Gaussian, Inc.),
 the Gaussian(R) 03 system (copyright 2003, Gaussian, Inc.),
 the Gaussian(R) 98 system (copyright 1998, Gaussian, Inc.),
 the Gaussian(R) 94 system (copyright 1995, Gaussian, Inc.),
 the Gaussian 92(TM) system (copyright 1992, Gaussian, Inc.),
 the Gaussian 90(TM) system (copyright 1990, Gaussian, Inc.),
 the Gaussian 88(TM) system (copyright 1988, Gaussian, Inc.),
 the Gaussian 86(TM) system (copyright 1986, Carnegie Mellon
 University), and the Gaussian 82(TM) system (copyright 1983,
 Carnegie Mellon University). Gaussian is a federally registered
 trademark of Gaussian, Inc.
  
 This software contains proprietary and confidential information,
 including trade secrets, belonging to Gaussian, Inc.
  
 This software is provided under written license and may be
 used, copied, transmitted, or stored only in accord with that
 written license.
  
 The following legend is applicable only to US Government
 contracts under FAR:
  
                    RESTRICTED RIGHTS LEGEND
  
 Use, reproduction and disclosure by the US Government is
 subject to restrictions as set forth in subparagraphs (a)
 and (c) of the Commercial Computer Software - Restricted
 Rights clause in FAR 52.227-19.
  
 Gaussian, Inc.
 340 Quinnipiac St., Bldg. 40, Wallingford CT 06492
  
  
 ---------------------------------------------------------------
 Warning -- This program may not be used in any manner that
 competes with the business of Gaussian, Inc. or will provide
 assistance to any competitor of Gaussian, Inc.  The licensee
 of this program is prohibited from giving any competitor of
 Gaussian, Inc. access to this program.  By using this program,
 the user acknowledges that Gaussian, Inc. is engaged in the
 business of creating and licensing software in the field of
 computational chemistry and represents and warrants to the
 licensee that it is not a competitor of Gaussian, Inc. and that
 it will not use this program in any manner prohibited above.
 ---------------------------------------------------------------
  

 Cite this work as:
 Gaussian Development Version, Revision J.19,
 M. J. Frisch, G. W. Trucks, H. B. Schlegel, G. E. Scuseria, 
 M. A. Robb, J. R. Cheeseman, G. Scalmani, V. Barone, 
 G. A. Petersson, H. Nakatsuji, X. Li, A. V. Marenich, M. Caricato, 
 J. Bloino, B. G. Janesko, J. Zheng, R. Gomperts, B. Mennucci, 
 H. P. Hratchian, J. V. Ortiz, A. F. Izmaylov, J. L. Sonnenberg, 
 D. Williams-Young, F. Ding, F. Lipparini, F. Egidi, J. Goings, 
 B. Peng, A. Petrone, T. Henderson, D. Ranasinghe, V. G. Zakrzewski, 
 J. Gao, N. Rega, G. Zheng, W. Liang, M. Hada, M. Ehara, K. Toyota, 
 R. Fukuda, J. Hasegawa, M. Ishida, T. Nakajima, Y. Honda, O. Kitao, 
 H. Nakai, T. Vreven, K. Throssell, J. A. Montgomery, Jr., 
 J. E. Peralta, F. Ogliaro, M. J. Bearpark, J. J. Heyd, 
 E. N. Brothers, K. N. Kudin, V. N. Staroverov, T. A. Keith, 
 R. Kobayashi, J. Normand, K. Raghavachari, A. P. Rendell, 
 J. C. Burant, S. S. Iyengar, J. Tomasi, M. Cossi, J. M. Millam, 
 M. Klene, C. Adamo, R. Cammi, J. W. Ochterski, R. L. Martin, 
 K. Morokuma, O. Farkas, J. B. Foresman, and D. J. Fox, 
 Gaussian, Inc., Wallingford CT, 2020.
 
 ******************************************
 Gaussian DV:  ES64L-GDVRevJ.19 27-Nov-2021
                 8-Jun-2022 
 ******************************************
 %chk=H2_0p75.chk
 -------------------------------------
 # casscf(2,2)/3-21g geom=connectivity
 -------------------------------------
 1/37=210000000,38=1,57=2,172=1/1;
 2/12=2/2;
 3/5=5,25=1,116=101/1,2,3;
 4/17=2,18=2,43=1/1,5;
 5/5=2,17=1000000,38=5/10;
 6/7=2,8=2,9=2,10=2,28=1/1;
 99/5=1,9=1/99;
 -------------------
 Title Card Required
 -------------------
 Symbolic Z-matrix:
 Charge =  0 Multiplicity = 1
 H                     0.        0.        0. 
 H                     0.        0.55      0. 
 
                          Input orientation:                          
 ---------------------------------------------------------------------
 Center     Atomic      Atomic             Coordinates (Angstroms)
 Number     Number       Type             X           Y           Z
 ---------------------------------------------------------------------
      1          1           0        0.000000    0.000000    0.000000
      2          1           0        0.000000    0.550000    0.000000
 ---------------------------------------------------------------------
 Stoichiometry    H2
 Framework group  D*H[C*(H.H)]
 Deg. of freedom     1
 Full point group                 D*H     NOp   8
 Largest Abelian subgroup         D2H     NOp   8
 Largest concise Abelian subgroup C2      NOp   2
                         Standard orientation:                         
 ---------------------------------------------------------------------
 Center     Atomic      Atomic             Coordinates (Angstroms)
 Number     Number       Type             X           Y           Z
 ---------------------------------------------------------------------
      1          1           0        0.000000    0.000000    0.275000
      2          1           0        0.000000    0.000000   -0.275000
 ---------------------------------------------------------------------
 Rotational constants (GHZ):           0.0000000        3315.4056494        3315.4056494
 Standard basis: 3-21G (6D, 7F)
 There are     2 symmetry adapted cartesian basis functions of AG  symmetry.
 There are     0 symmetry adapted cartesian basis functions of B1G symmetry.
 There are     0 symmetry adapted cartesian basis functions of B2G symmetry.
 There are     0 symmetry adapted cartesian basis functions of B3G symmetry.
 There are     0 symmetry adapted cartesian basis functions of AU  symmetry.
 There are     2 symmetry adapted cartesian basis functions of B1U symmetry.
 There are     0 symmetry adapted cartesian basis functions of B2U symmetry.
 There are     0 symmetry adapted cartesian basis functions of B3U symmetry.
 There are     2 symmetry adapted basis functions of AG  symmetry.
 There are     0 symmetry adapted basis functions of B1G symmetry.
 There are     0 symmetry adapted basis functions of B2G symmetry.
 There are     0 symmetry adapted basis functions of B3G symmetry.
 There are     0 symmetry adapted basis functions of AU  symmetry.
 There are     2 symmetry adapted basis functions of B1U symmetry.
 There are     0 symmetry adapted basis functions of B2U symmetry.
 There are     0 symmetry adapted basis functions of B3U symmetry.
     4 basis functions,     6 primitive gaussians,     4 cartesian basis functions
     1 alpha electrons        1 beta electrons
       nuclear repulsion energy         0.9621403835 Hartrees.
 NAtoms=    2 NActive=    2 NUniq=    1 SFac= 4.00D+00 NAtFMM=   60 NAOKFM=F Big=F
 Integral buffers will be    131072 words long.
 Regular integral format.
 Two-electron integral symmetry is turned off.
 One-electron integrals computed using PRISM.
 NBasis=     4 RedAO= T EigKep=  6.60D-02  NBF=     2     0     0     0     0     2     0     0
 NBsUse=     4 1.00D-06 EigRej= -1.00D+00 NBFU=     2     0     0     0     0     2     0     0
 ExpMin= 1.83D-01 ExpMax= 5.45D+00 ExpMxC= 5.45D+00 IAcc=3 IRadAn=         5 AccDes= 0.00D+00
 Harris functional with IExCor= 2005 and IRadAn=       5 diagonalized for initial guess.
 HarFok:  IExCor=    2005 AccDes= 0.00D+00 IRadAn=         5 IDoV= 1 UseB2=F ITyADJ=14 ICtDFT=  3500011
 FoFCou: FMM=F IPFlag=           0 FMFlag=      100000 FMFlg1=           0
         NFxFlg=           0 DoJE=T BraDBF=F KetDBF=T FulRan=T
         wScrn=  0.000000 ICntrl=       500 IOpCl=  0 I1Cent=   200000004 NGrid=           0
         NMat0=    1 NMatS0=      1 NMatT0=    0 NMatD0=    1 NMtDS0=    0 NMtDT0=    0
 Petite list used in FoFCou.
 Initial guess orbital symmetries:
       Occupied  (SGG)
       Virtual   (SGU) (SGG) (SGU)
 The electronic state of the initial guess is 1-SGG.
          Truncation Level=               99999
          a=  1          b=  0          c=  1
          a=N/2 - s   b=2s   c=n- (a+b)
          no. active orbitals (n)  2
          no. active ELECTRONS (N)=  2
                                                  IRREPS TO BE RETAINED = 1 2 3 4 5 6 7 8
                                                  GROUP IRREP. MULT. TABLE
                                                      1    2    3    4    5    6    7    8
                                                      2    1    4    3    6    5    8    7
                                                      3    4    1    2    7    8    5    6
                                                      4    3    2    1    8    7    6    5
                                                      5    6    7    8    1    2    3    4
                                                      6    5    8    7    2    1    4    3
                                                      7    8    5    6    3    4    1    2
                                                      8    7    6    5    4    3    2    1
                                                  IRREP. LABELS FOR ORBITALS
                                                   1 6
          BOTTOM WEIGHT=  2     TOP WEIGHT=  4
          Configuration         1 Symmetry 1 10
          Configuration         2 Symmetry 6 ab
          Configuration         3 Symmetry 1 01
          NO OF BASIS FUNCTIONS =         3 NO TO BE DELETED =    0
 CI Matrix Elements calculated here
          NO. OF CONFIGURATIONS IN REFERENCE SPACE =    1
                                   SECONDARY SPACE =    3
                                   TERTIARY SPACE =    3
          NO. OF ORBITALS =    2
          NO. OF ELECTRONS =    2
          NO. OF WEIGHTS =    3
          REFERENCE STATE CONFIGURATIONS ARE:     0
          NO. OF CORE ORBITALS =    0
          OPTION:  NON-DIAGONAL HOLE LINE INTERACTIONS INCLUDED
 Len28=          98 LenMCI=         101.
 Enter MCSCF program.
 NBasis=    4 NCore=    0 NVal=    2 NVirt=    2 IFrame=0 Acc=  1.00D-08.
  Memory needed for Incore Integrals:                   262199
  Integrals KEPT IN MEMORY
 IBUJAK length=                       80
 Integral file not found: evaluate integrals 
 FoFCou: FMM=F IPFlag=           0 FMFlag=           0 FMFlg1=           0
         NFxFlg=           0 DoJE=F BraDBF=F KetDBF=F FulRan=T
         wScrn=  0.000000 ICntrl=       600 IOpCl=  0 I1Cent=           0 NGrid=           0
         NMat0=    1 NMatS0=      1 NMatT0=    0 NMatD0=    1 NMtDS0=    0 NMtDT0=    0
 Symmetry not used in FoFCou.
 Defining IBUGAM
 2ND ORD PT ENERGY     CV    0.000000   CU    0.000000   UV   -0.009181
 TOTAL                      -1.092536
 ITN=  1 MaxIt=128 E=     -1.0833544600 DE=-1.08D+00 Acc= 1.00D-08 Lan=  0
 ITN=  2 MaxIt=128 E=     -1.0973950731 DE=-1.40D-02 Acc= 1.00D-08 Lan=  0
 ITN=  3 MaxIt=128 E=     -1.0981375484 DE=-7.42D-04 Acc= 1.00D-08 Lan=  0
 ITN=  4 MaxIt=128 E=     -1.0982411914 DE=-1.04D-04 Acc= 1.00D-08 Lan=  0
 ITN=  5 MaxIt=128 E=     -1.0982571006 DE=-1.59D-05 Acc= 1.00D-08 Lan=  0
 ITN=  6 MaxIt=128 E=     -1.0982595243 DE=-2.42D-06 Acc= 1.00D-08 Lan=  0
 ITN=  7 MaxIt=128 E=     -1.0982598909 DE=-3.67D-07 Acc= 1.00D-08 Lan=  0
 ITN=  8 MaxIt=128 E=     -1.0982599462 DE=-5.53D-08 Acc= 1.00D-08 Lan=  0
 ITN=  9 MaxIt=128 E=     -1.0982599545 DE=-8.32D-09 Acc= 1.00D-08 Lan=  0
 ... Do an extra-iteration for final printing.
 Final one electron symbolic density matrix:
                1             2 
      1  0.198733D+01
      2 -0.288027D-15  0.126719D-01
 MCSCF converged.

 **********************************************************************

            Population analysis using the SCF Density.

 **********************************************************************

 Orbital symmetries:
       Occupied  (SGG)
       Virtual   (SGU) (SGG) (SGU)
 The electronic state is 1-SGG.
 Alpha  occ. eigenvalues --        0.00000
 Alpha virt. eigenvalues --        0.00000       0.00000       0.00000
          Condensed to atoms (all electrons):
               1          2
     1  H    0.588480   0.411520
     2  H    0.411520   0.588480
 Mulliken charges:
               1
     1  H    0.000000
     2  H    0.000000
 Sum of Mulliken charges =   0.00000
 Mulliken charges with hydrogens summed into heavy atoms:
               1
 Electronic spatial extent (au):  <R**2>=              4.1851
 Charge=              0.0000 electrons
 Dipole moment (field-independent basis, Debye):
    X=              0.0000    Y=              0.0000    Z=              0.0000  Tot=              0.0000
 Quadrupole moment (field-independent basis, Debye-Ang):
   XX=             -1.7137   YY=             -1.7137   ZZ=             -1.4751
   XY=              0.0000   XZ=              0.0000   YZ=              0.0000
 Traceless Quadrupole moment (field-independent basis, Debye-Ang):
   XX=             -0.0795   YY=             -0.0795   ZZ=              0.1591
   XY=              0.0000   XZ=              0.0000   YZ=              0.0000
 Octapole moment (field-independent basis, Debye-Ang**2):
  XXX=              0.0000  YYY=              0.0000  ZZZ=              0.0000  XYY=              0.0000
  XXY=              0.0000  XXZ=              0.0000  XZZ=              0.0000  YZZ=              0.0000
  YYZ=              0.0000  XYZ=              0.0000
 Hexadecapole moment (field-independent basis, Debye-Ang**3):
 XXXX=             -1.3694 YYYY=             -1.3694 ZZZZ=             -1.8310 XXXY=              0.0000
 XXXZ=              0.0000 YYYX=              0.0000 YYYZ=              0.0000 ZZZX=              0.0000
 ZZZY=              0.0000 XXYY=             -0.4565 XXZZ=             -0.5368 YYZZ=             -0.5368
 XXYZ=              0.0000 YYXZ=              0.0000 ZZXY=              0.0000
 N-N= 9.621403834909D-01 E-N=-4.133768568598D+00  KE= 1.368752126324D+00
 Symmetry AG   KE= 1.344589976728D+00
 Symmetry B1G  KE= 0.000000000000D+00
 Symmetry B2G  KE= 0.000000000000D+00
 Symmetry B3G  KE= 0.000000000000D+00
 Symmetry AU   KE= 0.000000000000D+00
 Symmetry B1U  KE= 2.416214959647D-02
 Symmetry B2U  KE= 0.000000000000D+00
 Symmetry B3U  KE= 0.000000000000D+00
 Unable to Open any file for archive entry.
 1\1\GINC-TYCHE\SP\CASSCF\3-21G\H2\AODONGLIU\08-Jun-2022\0\\# casscf(2,
 2)/3-21g geom=connectivity\\Title Card Required\\0,1\H,0,0.,0.,0.\H,0,
 0.,0.55,0.\\Version=ES64L-GDVRevJ.19\State=1-SGG\HF=-1.09826\RMSD=0.00
 0e+00\Dipole=0.,0.,0.\Quadrupole=-0.0591395,0.1182789,-0.0591395,0.,0.
 ,0.\PG=D*H [C*(H1.H1)]\\@
 The archive entry for this job was punched.


 I DO NOT KNOW WHAT I MAY APPEAR TO THE WORLD; BUT TO MYSELF
 I SEEM TO HAVE BEEN ONLY LIKE A BOY PLAYING ON THE SEASHORE,
 AND DIVERTING MYSELF IN NOW AND THEN FINDING A SMOOTHER PEBBLE
 OR A PRETTIER SHELL THAN ORDINARY, WHILST THE GREAT OCEAN OF
 TRUTH LAY ALL UNDISCOVERED BEFORE ME.
                                          -- NEWTON (1642-1726)
 Job cpu time:       0 days  0 hours  0 minutes  1.2 seconds.
 Elapsed time:       0 days  0 hours  0 minutes  1.2 seconds.
 File lengths (MBytes):  RWF=      6 Int=      0 D2E=      0 Chk=      1 Scr=      1
 Normal termination of Gaussian DV at Wed Jun  8 07:58:21 2022.
